10
	Energy:      10.5736998
C         -1.71069        0.96969       -0.46280
C         -0.48337        1.30874        0.11690
C         -2.33707       -0.23371       -0.12103
C          0.11757        0.44439        1.03836
C         -0.50881       -0.75900        1.38013
C         -1.73613       -1.09805        0.80043
H_         1.06706        0.70670        1.48683
H          0.00122        2.23972       -0.14750
H         -3.28655       -0.49601       -0.56950
H         -2.22071       -2.02904        1.06484
