17
	Energy:      24.4231216
C         -6.09104        1.62848       -0.21767
C         -5.27282        2.64438       -0.70865
C         -5.55535        0.64023        0.60985
C         -3.92060        2.67114       -0.37095
C         -4.19507        0.64265        0.96266
C         -3.37502        1.68426        0.45661
H         -7.14114        1.60358       -0.47640
H         -5.68410        3.41237       -1.35001
N         -3.73075       -0.41524        1.82055
H         -2.32928        1.77078        0.67803
H         -4.44450       -1.08836        2.14234
C         -2.45027       -0.63257        2.25058
C         -2.16443       -1.79844        3.15113
H         -2.74979       -1.69686        4.08891
H         -1.08431       -1.84466        3.40803
H         -2.45042       -2.74262        2.64202
O         -1.52795        0.09169        1.91891
