16
	Energy:      99.2365426
H         -5.90460        0.97160       -1.56190
H         -2.15130        1.41480       -0.26770
N         -5.52010        1.90650       -1.35780
N         -2.64910        0.62250        0.17100
H         -4.64180       -0.05190       -0.03950
C         -4.56700        2.02910       -0.38390
C         -4.08530        0.79990        0.37850
O         -4.08620        3.12400       -0.12350
C         -4.41390        0.98340        1.87700
H         -4.14740        0.10030        2.47550
O         -3.71450        2.07590        2.41740
H         -5.51620        1.10760        2.00090
P         -4.30595        2.39487        4.03538
O         -4.26494        1.10070        4.89262
O         -5.79792        2.82121        3.98325
O         -3.40726        3.63016        4.85846
