10
	Energy:      10.4060467
H          7.33603        2.05860        5.94366
C          7.11669        2.62187        5.04627
C          7.11419        4.02040        5.06497
C          6.83256        1.95357        3.85480
N          6.83652        4.71626        3.92861
C          6.55054        2.68585        2.70116
C          6.55708        4.08217        2.75726
H          6.32926        2.17537        1.77343
H          6.34004        4.66138        1.86974
Cl         7.46785        4.88253        6.54868
