4
	Energy:      -0.0296781
C         -3.79279        2.24014        0.00000
C         -2.58752        2.22590        0.00000
H         -4.85109        2.25265       -0.00000
H         -1.52922        2.21339        0.00000
