40
	Energy:      27.7533104
H         10.93114       11.60721       12.96980
O         11.03519        9.85170       11.19344
C          9.84673       11.62097       13.03593
C          9.76684        9.90353       11.16789
C          9.19003       12.46836       13.92431
C          9.09579       10.80261       12.17878
O          9.00789        9.27120       10.36602
N          7.83577       12.51412       14.02721
C          7.70253       10.86287       12.26911
C          7.13076       11.71292       13.19745
H          7.08445       10.25631       11.61359
H          6.05204       11.78355       13.29011
C          9.95426       13.46105       14.76004
C         10.66986       12.88522       15.98705
H          9.22740       14.20094       15.12295
H         10.63975       14.02628       14.11782
C         12.17630       12.64863       15.77763
H         10.19471       11.95722       16.32869
H         10.53850       13.60998       16.80117
C         12.97061       13.09184       17.01414
H         12.54551       13.20336       14.90751
H         12.35327       11.58543       15.57685
C         14.47017       12.80403       16.90095
H         12.57355       12.59239       17.90636
H         12.82314       14.17012       17.15783
C         15.22818       13.41852       18.08383
H         14.86206       13.21664       15.96367
H         14.63299       11.72024       16.87422
C         16.71623       13.06228       18.06824
H         14.78375       13.07306       19.02530
H         15.11448       14.50959       18.05737
C         17.45513       13.73401       19.22837
H         17.16363       13.37630       17.11762
H         16.83250       11.97407       18.13837
C         18.92689       13.35313       19.25795
H         16.99332       13.44886       20.18093
H         17.36910       14.82354       19.14108
H         19.05000       12.27427       19.39613
H         19.43236       13.86005       20.08635
H         19.42725       13.64126       18.32812
