42
	Energy:      42.4562744
C         -0.82205        2.28726       -0.69649
C          0.47530        2.55953       -1.13445
C         -1.15245        1.01431       -0.21333
C         -0.16871       -0.00158       -0.16290
C          1.45357        1.56428       -1.09550
C          1.14201        0.28667       -0.61266
H         -1.57092        3.06941       -0.73992
H          0.72220        3.54460       -1.50933
C         -2.50686        0.75383        0.21244
H          2.45453        1.79149       -1.44297
C          2.16768       -0.72810       -0.58625
C         -3.62132        0.47688        0.58119
C         -4.93082        0.08428        1.03290
C          2.96693       -1.62927       -0.53038
C          3.85117       -2.75980       -0.42256
C         -5.16000       -1.24307        1.42214
C         -5.97760        1.01209        1.06690
C          3.37822       -3.94487        0.15716
C          5.16869       -2.68754       -0.88882
C          4.21720       -5.06658        0.27760
C          6.00934       -3.79857       -0.77556
C          5.53941       -4.98158       -0.19610
C         -7.24846        0.61454        1.49019
C         -6.43780       -1.65256        1.84793
C         -7.47977       -0.70870        1.87828
H         -5.81269        2.03880        0.76349
H         -8.05799        1.33245        1.51521
C         -6.68690       -3.05777        2.25511
H         -8.47410       -0.99212        2.19980
H         -4.34321       -1.95523        1.38669
H          5.54449       -1.77713       -1.33975
H          2.35571       -3.98801        0.51486
C          3.71070       -6.31674        0.89614
H          6.20987       -5.82847       -0.11854
H          7.02814       -3.74428       -1.13708
O         -5.78515       -3.88107        2.22953
O         -7.91378       -3.44502        2.65640
O          2.44372       -6.38944        1.35018
O          4.43503       -7.29402        1.00359
N         -0.49493       -1.30055        0.32962
H          0.20578       -2.05339        0.37419
H         -1.44074       -1.52921        0.66525
