88
	Energy:      79.3165574
C         -0.10610        0.65316        0.08035
C          1.30521        0.52601        0.13179
C         -0.63499        1.95892        0.14198
C          0.19408        3.08574        0.24730
C          1.57542        2.91991        0.29310
C          2.17312        1.64290        0.23876
C         -1.02115       -0.55780       -0.03979
H          1.73116       -0.44780        0.08650
H         -1.69220        2.12889        0.09749
O         -0.29963        4.35198        0.30595
H          2.15443        3.82264        0.38438
C          3.68415        1.48238        0.29513
C         -0.51342       -1.85860       -0.29895
C         -2.42770       -0.43834        0.10130
C          4.29751        0.21235        0.46088
C          4.54780        2.60089        0.18480
C          5.93424        2.45705        0.23539
C          6.50769        1.20173        0.39945
C          5.69676        0.06564        0.51490
C         -3.26774       -1.54582       -0.00927
C         -1.36197       -2.97803       -0.41263
C         -2.74292       -2.80651       -0.26452
H          0.53863       -2.03605       -0.43016
H         -2.92028        0.49489        0.30920
H         -4.33754       -1.42368        0.10593
C         -0.80898       -4.32893       -0.68864
H         -3.42124       -3.64663       -0.34572
H          3.71376       -0.68431        0.56471
C          6.30815       -1.27659        0.69481
H          6.56980        3.32900        0.14480
H          7.58704        1.12155        0.43621
H          4.18729        3.60515        0.04574
O          7.52180       -1.40422        0.74343
O          5.53251       -2.37299        0.80768
O         -1.62918       -5.39297       -0.79721
O          0.39371       -4.49415       -0.82088
C         -1.63608        4.69660        0.26524
C         -1.78657        6.21352        0.34117
H         -2.16798        4.23165        1.12486
H         -2.08094        4.33575       -0.68890
H         -1.34227        6.58281        1.29147
C         -3.26713        6.60214        0.27462
H         -1.24257        6.67436       -0.51269
H         -3.81032        6.14031        1.12876
H         -3.69854        6.21344       -0.67477
C         -3.45185        8.12135        0.31800
H         -3.03805        8.52327        1.26898
C         -4.93740        8.48070        0.20765
H         -2.90191        8.57802       -0.53456
H         -5.49477        8.03455        1.06085
H         -5.33831        8.05843       -0.74073
C         -5.14318        9.99791        0.19860
H         -4.76414       10.43533        1.14843
C         -6.62683       10.33998        0.02494
H         -4.57065       10.43309       -0.65039
H         -7.21166        9.92284        0.87433
H         -6.99136        9.87943       -0.92024
C         -6.83657       11.85500       -0.05259
H         -6.49603       12.33153        0.89302
C         -8.31117       12.18915       -0.30206
H         -6.23073       12.25711       -0.89481
H         -8.93177       11.80931        0.53935
H         -8.63741       11.68920       -1.24113
C         -8.51065       13.70036       -0.45384
H         -8.20704       14.21535        0.48420
C         -9.97117       14.03123       -0.77884
H         -7.86806       14.06436       -1.28612
H        -10.62765       13.68868        0.05127
H        -10.26264       13.49593       -1.70975
C        -10.15330       15.53696       -0.99692
H         -9.87949       16.08416       -0.06795
C        -11.59926       15.86600       -1.38328
H         -9.47869       15.86621       -1.81823
H        -12.28401       15.55231       -0.56467
H        -11.86433       15.30458       -2.30662
C        -11.76568       17.36646       -1.64806
H        -11.51108       17.93507       -0.72647
C        -13.20137       17.69433       -2.07243
H        -11.06956       17.67166       -2.46065
H        -13.90290       17.39643       -1.26213
H        -13.45091       17.11913       -2.99159
C        -13.35891       19.19168       -2.35924
H        -13.11794       19.77534       -1.44411
C        -14.78286       19.52151       -2.79630
H        -12.65841       19.49231       -3.16895
H        -15.50473       19.25074       -1.99669
H        -15.03978       18.96644       -3.72379
H        -14.86699       20.60993       -2.99904
