47
	Energy:      48.7656866
C         -0.87504        2.13784       -0.48827
C          0.43597        2.36930       -0.89486
C         -1.27687        0.85130       -0.11843
C         -0.37299       -0.22909       -0.14255
C          1.35399        1.32053       -0.92275
C          0.97103        0.02481       -0.54408
H         -1.57752        2.96224       -0.45906
H          0.74455        3.36722       -1.17818
C         -2.63130        0.62964        0.30440
O         -0.86640       -1.45122        0.22911
H          2.37390        1.52595       -1.22653
C          1.99256       -0.98590       -0.53508
C         -3.74538        0.36733        0.66963
C         -5.04615       -0.03046        1.11788
C          2.81129       -1.86746       -0.50825
C          3.70118       -2.98890       -0.42627
C         -5.25529       -1.35904        1.50381
C         -6.09776        0.88916        1.15887
C          3.23697       -4.17268        0.15681
C          5.02269       -2.89780       -0.87355
C          4.08975       -5.27351        0.31632
C          5.87983       -3.99211       -0.72645
C          5.42003       -5.17285       -0.13074
C         -7.36296        0.47616        1.58138
C         -6.52501       -1.78443        1.92925
C         -7.57866       -0.85271        1.96295
H         -5.94028        1.91913        0.86100
H         -8.17894        1.18631        1.60979
C         -6.75005       -3.19431        2.33048
H         -8.56891       -1.14963        2.28272
H         -4.42718       -2.05895        1.46649
H          5.39105       -1.98279       -1.32225
H          2.21417       -4.22985        0.50386
C          3.58640       -6.50978        0.96299
H          6.10444       -6.00317       -0.01542
H          6.90546       -3.92202       -1.06424
O         -5.83335       -4.00128        2.30426
O         -7.97095       -3.60467        2.72531
O          2.30906       -6.58614        1.38839
O          4.32405       -7.46808        1.12875
C         -0.23902       -2.67937        0.27531
C         -1.22847       -3.75264        0.71195
H          0.58662       -2.64815        1.01521
H          0.14038       -2.94997       -0.73423
H         -1.62117       -3.52542        1.72545
H         -0.72092       -4.74123        0.73968
H         -2.07704       -3.80989       -0.00272
