42
	Energy:     144.1064279
C         -0.86818        1.92211       -0.47808
C          0.44833        2.11523       -0.90649
C         -1.30179        0.64788       -0.09981
C         -0.41221       -0.45168       -0.14462
C          1.33705        1.03781       -0.95710
C          0.91942       -0.23601       -0.58078
H         -1.54527        2.76732       -0.43884
H          0.78433        3.10392       -1.19250
C         -2.65235        0.42372        0.34024
N         -0.84468       -1.75462        0.25428
H          2.35899        1.20452       -1.27649
C          1.84845       -1.33359       -0.56644
C         -3.79654        0.31741        0.69672
C         -5.10610       -0.04514        1.15687
C          2.74261       -2.33484       -0.56644
C          3.40470       -3.07623       -0.56644
C         -5.32376       -1.37424        1.53823
C         -6.15306        0.88007        1.20473
C          3.01975       -4.28078        0.06385
C          4.72527       -2.92327       -1.02330
C          3.94215       -5.32250        0.25165
C          5.64294       -3.96727       -0.84442
C          5.25809       -5.15393       -0.20815
C         -7.42065        0.46685        1.62792
C         -6.59219       -1.79916        1.96259
C         -7.64189       -0.86464        2.00192
H         -5.99343        1.90985        0.90908
H         -8.23612        1.17724        1.66073
C         -6.81785       -3.21306        2.35262
H         -8.63274       -1.16234        2.31986
H         -4.50028       -2.07928        1.49394
H          5.06974       -2.00007       -1.48296
H          2.00751       -4.41006        0.45348
C          3.53653       -6.56442        0.95977
H          5.99439       -5.93419       -0.06195
H          6.66604       -3.84829       -1.17604
O         -5.89845       -4.01739        2.33167
O         -8.04208       -3.63054        2.72889
O          2.39172       -6.70426        1.36351
O          4.43196       -7.54451        1.18828
H         -1.80334       -1.93217        0.58414
H         -0.21420       -2.56754        0.22496
