40
	Energy:     150.8798980
C         -0.84561        1.91189       -0.37572
C          0.46235        2.09078       -0.81884
C         -1.28655        0.63037       -0.02777
C         -0.43242       -0.47705       -0.10823
C          1.31611        0.99171       -0.90994
C          0.86908       -0.29244       -0.54207
H         -1.50797        2.76631       -0.30009
H          0.81936        3.07901       -1.07935
C         -2.61805        0.42548        0.41160
H         -0.77365       -1.46430        0.18324
H          2.33928        1.14865       -1.23264
C          1.84845       -1.33359       -0.56644
C         -3.75288        0.32015        0.76512
C         -5.04990       -0.02265        1.22642
C          2.74261       -2.33484       -0.56644
C          3.40470       -3.07623       -0.56644
C         -5.24918       -1.34743        1.60606
C         -6.10344        0.89269        1.23681
C          2.98615       -4.26431        0.07253
C          4.74775       -2.92248       -0.94604
C          3.89741       -5.28965        0.35671
C          5.65939       -3.95173       -0.66614
C          5.24096       -5.12181       -0.01530
C         -7.37871        0.45767        1.60726
C         -6.52134       -1.79737        1.96681
C         -7.59189       -0.88378        1.95892
H         -5.94503        1.92233        0.93610
H         -8.20510        1.15575        1.60276
C         -6.72111       -3.22277        2.31553
H         -8.58932       -1.20483        2.22482
H         -4.40946       -2.03562        1.58485
H          5.11704       -2.00199       -1.39097
H          1.95388       -4.38644        0.41248
C          3.44670       -6.50166        1.09004
H          5.97270       -5.88360        0.22206
H          6.70478       -3.82711       -0.91585
O         -5.76263       -3.96986        2.44649
O         -7.96317       -3.72134        2.45622
O          2.29143       -6.59983        1.47731
O          4.31041       -7.49852        1.36076
