44
	Energy:     358.3625589
C         -0.84694        1.91613       -0.37698
C          0.46289        2.09463       -0.82073
C         -1.28396        0.64681       -0.03214
C         -0.40953       -0.40278       -0.12920
C          1.32194        1.00186       -0.91429
C          0.88864       -0.24968       -0.56588
H         -1.50875        2.76660       -0.30126
H          0.81881        3.07953       -1.08073
C         -2.62410        0.44800        0.40624
O         -0.82580       -1.56079        0.21733
H          2.34029        1.15012       -1.23381
C          1.82902       -1.28470       -0.57071
C         -3.75166        0.31151        0.76941
C         -5.05051       -0.02525        1.22624
C          2.58152       -2.14604       -0.56235
C          3.44652       -3.13657       -0.55262
C         -5.25055       -1.34870        1.60550
C         -6.10404        0.89161        1.23558
C          2.99512       -4.28236        0.07539
C          4.75892       -2.93244       -0.94494
C          3.91218       -5.30013        0.35645
C          5.66330       -3.95227       -0.66851
C          5.24563       -5.12275       -0.01831
C         -7.37936        0.45735        1.60730
C         -6.52255       -1.79792        1.96676
C         -7.59276       -0.88397        1.95931
H         -5.94551        1.92171        0.93606
H         -8.20562        1.15562        1.60338
C         -6.72261       -3.22311        2.31608
H         -8.59016       -1.20474        2.22565
H         -4.41078       -2.03678        1.58406
H          5.11297       -2.00256       -1.39089
H          1.95720       -4.38335        0.41021
C          3.50691       -6.52965        1.08582
H          5.97384       -5.88435        0.21872
H          6.70508       -3.82765       -0.91868
O         -5.76447       -3.97114        2.44418
O         -7.96470       -3.72034        2.46115
O          2.24531       -6.61185        1.49462
O          4.28118       -7.45250        1.34556
C         -0.19801       -2.24945        0.13515
H         -0.63884       -3.17307        0.44738
H          0.65076       -2.03356        0.74986
H          0.11211       -2.32940       -0.88580
