43
	Energy:      49.3852159
C         -0.82694        2.30080       -0.67989
C          0.46978        2.55914       -1.13919
C         -1.14910        1.04216       -0.20498
C         -0.14041        0.05513       -0.17993
C          1.45950        1.56974       -1.12437
C          1.17028        0.31051       -0.63755
H         -1.58855        3.06450       -0.69925
H          0.71084        3.52830       -1.51455
C         -2.51499        0.75356        0.22674
H          2.45581        1.76336       -1.48404
C          2.20945       -0.71277       -0.61129
C         -3.63153        0.46172        0.59590
C         -4.94985        0.07324        1.04327
C          2.99012       -1.63603       -0.54065
C          3.86655       -2.77802       -0.42409
C         -5.18155       -1.25317        1.42844
C         -6.00090        1.00085        1.07464
C          3.39133       -3.95916        0.16285
C          5.18520       -2.71447       -0.89121
C          4.22500       -5.08425        0.28514
C          6.02235       -3.82841       -0.77402
C          5.54731       -5.00774       -0.19053
C         -7.27455        0.59947        1.49129
C         -6.45911       -1.66589        1.84847
C         -7.50419       -0.72541        1.87631
H         -5.83950        2.02964        0.77418
H         -8.08797        1.31418        1.51405
C         -6.70022       -3.07268        2.25233
H         -8.49877       -1.01361        2.19342
H         -4.36299       -1.96198        1.39410
H          5.56493       -1.80676       -1.34588
H          2.37045       -3.99575        0.52318
C          3.70777       -6.32806        0.90590
H          6.21287       -5.85838       -0.11159
H          7.04164       -3.77999       -1.13633
O         -5.79284       -3.88993        2.22607
O         -7.92412       -3.46792        2.65378
O          2.43950       -6.38764        1.35866
O          4.42159       -7.31289        1.01226
C         -0.49638       -1.26166        0.33345
H          0.36510       -1.93671        0.30141
H         -1.29445       -1.62344       -0.34320
H         -0.80499       -1.08250        1.38213
