39
	Energy:      64.0538498
C         -0.52429        1.17457        0.05030
C          0.88816        1.06049        0.11529
C         -1.06606        2.47753        0.08551
C         -0.24692        3.60543        0.17682
C          1.13941        3.45760        0.23714
C          1.74796        2.18463        0.21015
C         -1.42326       -0.04894       -0.05481
H          1.32114        0.09001        0.09222
H         -2.12575        2.65366        0.03166
C         -0.84299        4.98518        0.21104
H          1.71282        4.36497        0.31657
C          3.26060        2.03402        0.28208
H         -1.95208        4.95952        0.15629
H         -0.46548        5.57599       -0.65007
H         -0.55286        5.49351        1.15471
C         -0.89830       -1.34821       -0.28901
C         -2.83079        0.05695        0.07679
C          3.88206        0.76720        0.44788
C          4.11844        3.15855        0.18658
C          5.50532        3.02363        0.25104
C          6.08577        1.77151        0.41418
C          5.28165        0.62953        0.51516
C         -3.65699       -1.06297       -0.01803
C         -1.73102       -2.47929       -0.38700
C         -3.11553       -2.32200       -0.24819
H          0.15595       -1.51595       -0.41243
H         -3.33157        0.99018        0.26545
H         -4.72867       -0.95229        0.08988
C         -1.15057       -3.82429       -0.63674
H         -3.78227       -3.17257       -0.31768
H          3.30589       -0.13519        0.54004
C          5.90050       -0.70975        0.69319
H          6.13595        3.90025        0.17200
H          7.16523        1.69836        0.46148
H          3.75407        4.16148        0.05017
O          7.11450       -0.82946        0.75272
O          5.13144       -1.81217        0.79173
O         -1.87270       -4.80555       -0.72296
O          0.18114       -3.98144       -0.77187
