42
	Energy:      74.4020119
C         -3.09193        2.87140        0.24150
C         -1.72714        2.77391       -0.04264
C         -3.78502        1.77982        0.77094
C         -1.05494        1.56172        0.19238
C         -1.75396        0.46862        0.72891
C         -3.13300        0.55215        1.03960
C         -3.87570       -0.61738        1.64983
H         -1.19600       -0.43908        0.88928
C         -1.02073        3.86882       -0.55108
C          0.31427        1.45547       -0.10070
H         -3.62514        3.79834        0.06448
H         -4.82959        1.93555        0.98393
C          0.34607        3.76470       -0.82138
C          1.04429        2.55427       -0.60858
H          0.80021        0.51317        0.10287
C          2.51777        2.43946       -0.90211
H         -1.52419        4.81061       -0.73611
H          0.83500        4.64139       -1.21760
C          3.13142        1.17956       -1.10329
C          3.33643        3.58793       -0.98253
C         -5.28894       -0.64183        1.71134
C         -3.18301       -1.72586        2.19998
C          4.50635        1.06718       -1.37688
C          4.70335        3.47964       -1.24058
C          5.28730        2.23090       -1.43798
C         -5.96873       -1.71604        2.28735
C         -3.86521       -2.80674        2.78769
C         -5.26584       -2.79069        2.82349
H         -5.89788        0.15166        1.31093
H         -7.05085       -1.71382        2.31946
C         -3.10969       -3.94580        3.37007
H         -5.81954       -3.60793        3.26872
H         -2.10762       -1.76435        2.20452
H          2.54850        0.27248       -1.07311
C          5.12263       -0.26527       -1.60379
H          6.34948        2.17700       -1.64071
H          2.94385        4.58069       -0.82505
H          5.31513        4.37166       -1.28607
O         -3.69934       -4.88210        3.88708
O         -1.76222       -3.95975        3.34177
O          6.31533       -0.36564       -1.84072
O          4.36934       -1.38293       -1.56025
