40
	Energy:      61.7976515
C         -3.15335        2.99925        0.26536
C         -1.78904        2.91443       -0.01612
C         -3.82833        1.89106        0.77778
C         -1.11796        1.70357        0.21518
N         -1.79547        0.64058        0.72585
C         -3.13005        0.68748        1.01969
C         -3.79340       -0.52593        1.59900
C         -1.07465        4.00201       -0.52015
N          0.20850        1.59954       -0.06975
H         -3.69643        3.92104        0.09361
H         -4.87873        2.00744        0.98879
C          0.28818        3.87429       -0.79001
C          0.94067        2.64229       -0.56474
C          2.39605        2.43860       -0.85926
H         -1.56778        4.94879       -0.70599
H          0.79719        4.73814       -1.18547
C          2.94380        1.13799       -0.81085
C          3.25398        3.50903       -1.19453
C         -5.18928       -0.59890        1.80212
C         -3.00953       -1.64058        1.97008
C          4.30238        0.90591       -1.09798
C          4.60344        3.28441       -1.46852
C          5.12647        1.99425       -1.42433
C         -5.77278       -1.74013        2.35333
C         -3.59365       -2.79019        2.53487
C         -4.98435       -2.82805        2.72023
H         -5.85321        0.20796        1.53840
H         -6.84491       -1.77968        2.49934
C         -2.75049       -3.94430        2.93562
H         -5.46461       -3.69803        3.15078
H         -1.93628       -1.61280        1.83162
H          2.30924        0.29690       -0.56229
C          4.85520       -0.47128       -1.06338
H          6.17630        1.84971       -1.64764
H          2.90983        4.52942       -1.24202
H          5.24789        4.11760       -1.71914
O         -3.25593       -4.94001        3.43055
O         -1.41405       -3.90571        2.76740
O          6.03275       -0.67393       -1.31680
O          4.06263       -1.51878       -0.76277
