52
	Energy:      72.5290513
C         -0.75859        2.31336       -0.72249
C          0.54325        2.53941       -1.13593
C         -1.15147        1.05974       -0.24231
C         -0.21657       -0.03760       -0.15788
C          1.47787        1.51685       -1.07811
C          1.13484        0.24229       -0.60211
H         -1.47142        3.12888       -0.77985
H          0.82984        3.51597       -1.50605
C         -2.53845        0.94452        0.15157
H          2.48844        1.72762       -1.41142
C          2.22423       -0.71549       -0.60711
C         -3.67252        0.73070        0.50885
C         -4.96721        0.29844        0.96662
C          3.08857       -1.56443       -0.58329
C          4.00474       -2.67796       -0.48546
C         -5.13933       -1.03992        1.35288
C         -6.04561        1.18552        1.02799
C          3.55685       -3.88051        0.08232
C          5.32312       -2.58284       -0.94548
C          4.40546       -4.98970        0.19720
C          6.17958       -3.68559       -0.83766
C          5.72572       -4.88245       -0.27028
C         -7.29195        0.73520        1.47366
C         -6.38967       -1.50196        1.80090
C         -7.46552       -0.59912        1.85753
H         -5.92346        2.22002        0.73242
H         -8.12731        1.42113        1.52140
C         -6.57248       -2.91871        2.20605
H         -8.44096       -0.92322        2.19782
H         -4.29844       -1.72206        1.30280
H          5.68727       -1.66374       -1.38736
H          2.54538       -3.96374        0.44027
C          3.90171       -6.24814        0.80435
H          6.40469       -5.72256       -0.19671
H          7.19848       -3.61539       -1.19473
O         -5.63864       -3.70461        2.15665
O         -7.77315       -3.35763        2.63241
O          2.63140       -6.33149        1.24972
O          4.62997       -7.22218        0.90942
C         -0.70784       -1.43455        0.39427
C          0.35720       -2.54142        0.45566
C         -1.81524       -2.01695       -0.52375
C         -1.19474       -1.29133        1.86143
H         -1.41665       -2.16112       -1.55175
H         -2.71608       -1.39755       -0.61909
H         -2.16368       -3.00311       -0.14685
H          0.73100       -2.78615       -0.56120
H         -0.06384       -3.48911        0.85782
H          1.17518       -2.25299        1.14937
H         -0.36257       -0.92409        2.50128
H         -1.53300       -2.27084        2.26393
H         -2.03617       -0.60261        2.01011
