13
	Energy:      12.5749700
C         -6.44948        3.22881       -0.15281
C         -5.55515        4.30208       -0.10288
C         -5.99175        1.92601        0.06403
C         -4.20104        4.07471        0.16404
C         -4.63891        1.69398        0.33120
C         -3.73595        2.76705        0.38270
H         -5.91097        5.31035       -0.27098
C         -2.28164        2.51427        0.67025
H         -4.29289        0.68127        0.49800
H         -7.49689        3.40657       -0.35947
F         -1.56027        3.69649        0.67784
F         -1.75624        1.68034       -0.29994
F         -2.15295        1.90824        1.90675
