24
	Energy:      32.8730848
C         -3.58699        1.92376        0.04779
C         -2.39311        1.59167       -0.60962
C         -4.00020        1.17920        1.17918
C         -1.60718        0.52448       -0.15000
C         -2.02038       -0.22008        0.98138
C         -3.21427        0.11200        1.63878
C         -5.19599        1.51602        1.83323
H         -3.53083       -0.45841        2.50555
C         -4.37752        2.99084       -0.40780
H         -2.07655        2.16209       -1.47638
C         -5.56590        3.31562        0.25267
C         -5.97367        2.58084        1.36921
H         -5.52593        0.95609        2.70026
H         -6.89486        2.83717        1.87637
H         -4.07516        3.57027       -1.27207
H         -6.17238        4.13903       -0.10184
C         -0.41137        0.18768       -0.80404
C         -1.22983       -1.28714        1.43700
C          0.36634       -0.87711       -0.33999
C         -0.04144       -1.61189        0.77655
H         -1.53219       -1.86656        2.30126
H          0.56506       -2.43528        1.13109
H         -0.08143        0.74761       -1.67106
H          1.28754       -1.13342       -0.84713
