28
	Energy:      98.1714401
C         -3.57843        1.94014        0.04498
C         -2.36238        1.61098       -0.63799
C         -4.00060        1.17916        1.18123
C         -1.57509        0.51221       -0.16596
C         -1.99725       -0.24876        0.97028
C         -3.21339        0.08027        1.65314
C         -5.24539        1.51271        1.78936
C         -3.66003       -0.72013        2.86047
C         -4.42576        2.99198       -0.41223
C         -1.91583        2.41109       -1.84555
C         -5.62057        3.29295        0.22653
C         -6.02795        2.55790        1.31924
H         -5.65673        0.96982        2.61550
H         -6.97044        2.78713        1.80063
H         -4.20755        3.58853       -1.27504
H         -6.24496        4.09614       -0.14440
C         -0.33017        0.17883       -0.77393
C         -1.14982       -1.30045        1.42764
C          0.45254       -0.86617       -0.30362
C          0.04514       -1.60123        0.78909
H         -1.36803       -1.89694        2.29051
H          0.66965       -2.40425        1.16019
H          0.08117        0.72174       -1.60006
H          1.39514       -1.09524       -0.78485
O         -4.23307       -0.11751        3.91966
O         -1.34292        1.80814       -2.90463
O         -2.08066        3.61851       -1.89237
O         -3.49527       -1.92757        2.90692
