8
	Energy:      49.4685613
C         17.52080        0.00000       17.52080
O         17.17160        0.00000       18.72770
O         18.72770        0.00000       17.17160
C         13.52980        0.00000       13.52980
O         12.32290        0.00000       13.87900
O         13.87900        0.00000       12.32290
H         16.72491        0.00000       16.72491
H         14.32569       -0.00000       14.32569
