17
	Energy:      33.4919314
C         -1.66716        1.39962       -0.15470
C         -0.22085        1.56739        0.10754
C         -2.30011        0.27483        0.21815
C          0.45464        0.60619        0.75396
C         -0.24502       -0.62701        1.18383
C         -1.55094       -0.82661        0.90862
H          1.51277        0.72586        0.96184
H          0.28426        2.47356       -0.21021
H         -3.36858        0.23664        0.06108
N         -2.16179       -2.03173        1.39252
C         -3.29521       -2.65371        0.94241
H         -1.67927       -2.49024        2.18296
O         -3.71563       -3.61485        1.56996
C         -4.03785       -2.30107       -0.32048
H         -3.51474       -1.58784       -0.97609
H         -5.05953       -1.94208       -0.07533
H         -4.12826       -3.21946       -0.93853
