16
	Energy:      14.4423135
C         -5.96161        2.85479       -0.00000
C         -4.79343        3.53445       -0.00000
C         -3.51271        2.77405       -0.00000
C         -3.51896        1.43068       -0.00000
C         -4.80756        0.68186       -0.00000
C         -5.96853        1.37174       -0.00000
H         -6.91159        3.38087       -0.00000
H         -2.56376        3.30147       -0.00000
H         -2.57499        0.89417       -0.00000
H         -6.92330        0.85471       -0.00000
C         -4.80707       -0.80410       -0.00000
C         -4.77178        5.02086       -0.00000
O         -3.59668        5.67975        0.00000
O         -5.81388        5.65824       -0.00000
O         -5.96807       -1.48903       -0.00000
O         -3.75178       -1.41805       -0.00000
