16
	Energy:      20.7208080
C         -1.63169        1.05012       -0.46175
C         -0.40402        1.38650        0.11982
C         -2.24010       -0.16326       -0.10225
C          0.20817        0.53712        1.03926
C         -0.38578       -0.68043        1.41065
C         -1.63054       -1.02482        0.82304
H          1.15630        0.84098        1.46114
H          0.09111        2.31285       -0.13493
H         -3.19169       -0.44819       -0.53807
Br        -2.57026       -2.64452        1.22087
C          0.32945       -1.53959        2.40243
O         -0.12892       -2.60918        2.76947
C         -2.26165        1.97269       -1.43792
O         -3.33190        1.69874       -1.95686
O         -1.65361        3.13123       -1.76373
O          1.51019       -1.14074        2.91515
