23
	Energy:      41.8037245
C         -1.62044        1.14825       -0.45373
C         -0.37463        1.41483        0.11123
C         -2.28468       -0.03841       -0.10829
C          0.20107        0.51977        1.00376
C         -0.44021       -0.68229        1.36766
C         -1.72647       -0.97978        0.79587
H          1.17231        0.77924        1.40591
H          0.16263        2.32259       -0.13437
H         -3.25722       -0.18673       -0.54094
N         -2.45383       -2.17332        1.15996
C          0.31717       -1.57063        2.31511
O         -0.06477       -2.69009        2.60483
C         -2.23164        2.11886       -1.39890
O         -3.32418        1.89814       -1.89818
O         -1.58688        3.25819       -1.71952
O          1.48992       -1.15480        2.83527
C         -3.46332       -2.77379        0.45455
H         -2.20858       -2.63700        2.03841
O         -3.81919       -2.36229       -0.63774
C         -4.14370       -4.00088        1.00040
H         -3.74306       -4.28432        1.99619
Br        -3.88489       -5.49947       -0.20039
H         -5.23096       -3.80348        1.10752
