23
	Energy:      41.8544085
C         -1.62085        1.14505       -0.45383
C         -0.37784        1.41387        0.11623
C         -2.28340       -0.04379       -0.11270
C          0.19673        0.51889        1.00958
C         -0.44292       -0.68531        1.36924
C         -1.72624       -0.98514        0.79213
H          1.16580        0.78014        1.41579
H          0.15808        2.32334       -0.12597
H         -3.25396       -0.19391       -0.54920
N         -2.45203       -2.18101        1.15166
C          0.31305       -1.57324        2.31817
O         -0.06727       -2.69406        2.60474
C         -2.23092        2.11557       -1.39980
O         -3.32100        1.89288       -1.90355
O         -1.58785        3.25702       -1.71623
O          1.48282       -1.15537        2.84338
C         -3.45702       -2.78314        0.44123
H         -2.20926       -2.64512        2.03057
O         -3.80914       -2.37106       -0.65217
C         -4.13672       -4.01272        0.98294
H         -3.73990       -4.29554        1.98042
Cl        -3.89090       -5.38704       -0.12378
H         -5.22482       -3.81771        1.08576
