16
	Energy:      20.2262581
C         -1.63342        1.04328       -0.45863
C         -0.40513        1.37982        0.12325
C         -2.24367       -0.17018       -0.10026
C          0.20279        0.52733        1.04186
C         -0.39317       -0.69019        1.41193
C         -1.63973       -1.03705        0.82470
H          1.15156        0.83037        1.46465
H          0.09344        2.30626       -0.12936
H         -3.19479       -0.44658       -0.54106
Cl        -2.49842       -2.53070        1.19664
C          0.32485       -1.54536        2.40304
O         -0.13058       -2.61423        2.77153
C         -2.26780        1.96261       -1.43564
O         -3.33905        1.68073       -1.95032
O         -1.66849        3.12308       -1.76825
O          1.50668       -1.13969        2.91225
