23
	Energy:      41.8444978
C         -1.63010        1.13795       -0.45229
C         -0.38792        1.41017        0.11793
C         -2.28607       -0.05616       -0.11691
C          0.19221        0.51343        1.00591
C         -0.44079       -0.69600        1.35980
C         -1.72310       -0.99947        0.78226
H          1.16030        0.77760        1.41257
H          0.14301        2.32370       -0.11994
H         -3.25625       -0.20911       -0.55329
N         -2.44231       -2.20116        1.13572
C          0.32073       -1.58487        2.30342
O         -0.05386       -2.70882        2.58517
C         -2.24623        2.11032       -1.39242
O         -3.33571        1.88467       -1.89616
O         -1.60943        3.25676       -1.70345
O          1.48912       -1.16387        2.82920
C         -3.44550       -2.80378        0.42318
H         -2.19619       -2.66937        2.01154
O         -3.80085       -2.38872       -0.66772
C         -4.11780       -4.03990        0.95510
H         -3.71469       -4.33393        1.94682
F         -3.92818       -5.08765        0.07298
H         -5.20596       -3.84917        1.06519
