44
	Energy:      60.2876515
C         -1.12273        1.75625       -0.33429
C         -0.11756        2.05433        0.58542
C         -1.72365        0.48987       -0.29806
C          0.28280        1.11090        1.52281
C         -0.29920       -0.17383        1.58056
C         -1.33769       -0.50139        0.64184
H          1.07210        1.39745        2.20690
H          0.36492        3.02414        0.58415
H         -2.51868        0.31369       -1.00004
N         -2.00835       -1.77821        0.68005
C          0.25900       -1.11099        2.61825
O         -0.06845       -2.41380        2.67064
C         -1.55624        2.77152       -1.32940
O         -2.52951        2.48821       -2.21762
O         -1.03537        3.87595       -1.35661
O          1.08860       -0.70633        3.41900
C         -2.70206       -2.37771       -0.33891
H         -1.98284       -2.30175        1.55807
O         -2.74850       -1.88345       -1.45318
C         -3.36759       -3.72059       -0.11514
H         -3.13552       -4.06972        0.91453
H         -2.93926       -4.46713       -0.81926
C         -4.90420       -3.68314       -0.24009
C         -5.46186       -5.04461        0.21189
H         -5.12433       -5.33175        1.15774
H         -5.50357       -5.78160       -0.62102
C         -6.72583       -5.01323        1.10051
C         -5.38161       -3.33101       -1.66035
H         -5.21465       -2.94436        0.61504
C         -6.46869       -4.11093        2.31594
C         -7.00370       -6.44707        1.58590
C         -7.95277       -4.49128        0.33473
H         -5.58399       -4.45638        2.89363
H         -7.35212       -4.07647        2.98968
H         -6.80710       -3.10030        1.78670
H         -6.13381       -6.84361        2.15366
H         -7.19443       -7.12327        0.72441
H         -7.89370       -6.47296        2.25149
H         -7.81349       -3.43277        0.03524
H         -8.85834       -4.52974        0.97837
H         -8.14180       -5.10809       -0.57025
H         -4.96247       -4.04739       -2.39886
H         -5.08089       -2.30263       -1.93748
H         -6.48353       -3.36536       -1.73946
