18
	Energy:      37.0017877
C         -1.64199        1.02570       -0.45327
C         -0.42190        1.34286        0.13533
C         -2.26530       -0.17981       -0.10822
C          0.16650        0.47766        1.04925
C         -0.43138       -0.74946        1.42404
C         -1.70347       -1.09530        0.81974
H          1.11555        0.79169        1.46543
H          0.08722        2.26764       -0.10946
H         -3.21380       -0.40816       -0.57706
N         -2.46043       -2.29985        1.07822
C          0.36146       -1.54971        2.42929
O         -0.00394       -2.62519        2.85978
C         -2.26561        1.95579       -1.43001
O         -3.33641        1.68430       -1.95082
O         -1.65747        3.11383       -1.75544
O          1.53600       -1.07249        2.88952
O         -2.08545       -3.13495        1.83623
O         -3.50158       -2.48175        0.52104
