23
	Energy:      46.2979452
C         -1.61280        1.16841       -0.45454
C         -0.36773        1.44286        0.10899
C         -2.26468       -0.02692       -0.11570
C          0.21905        0.54707        0.99394
C         -0.41004       -0.66336        1.35061
C         -1.69411       -0.96889        0.77970
H          1.18894        0.81224        1.39563
H          0.16010        2.35746       -0.13161
H         -3.23886       -0.18271       -0.54398
N         -2.41002       -2.17023        1.13941
C          0.35650       -1.55386        2.28817
O         -0.01396       -2.68082        2.56436
C         -2.23643        2.13986       -1.39051
O         -3.32832        1.91204       -1.88802
O         -1.60387        3.28777       -1.70473
O          1.52547       -1.13210        2.81195
C         -3.38919       -2.79218        0.40551
H         -2.16913       -2.60178        2.03031
O         -3.69314       -2.38438       -0.70464
C         -4.11123       -4.03707        0.89973
Br        -3.60543       -4.68707        2.66562
Br        -3.80145       -5.48632       -0.35019
Br        -6.01523       -3.67743        0.95462
