23
	Energy:      43.3488218
C         -1.62412        1.14244       -0.45296
C         -0.38562        1.41912        0.12363
C         -2.27677       -0.05472       -0.12206
C          0.19411        0.52355        1.01335
C         -0.43589       -0.68871        1.36246
C         -1.71386       -0.99629        0.77863
H          1.15928        0.79055        1.42508
H          0.14256        2.33518       -0.11052
H         -3.24529       -0.21201       -0.56158
N         -2.43116       -2.19951        1.12961
C          0.32355       -1.57775        2.30717
O         -0.04720       -2.70533        2.57994
C         -2.24029        2.11344       -1.39439
O         -3.32638        1.88356       -1.90351
O         -1.60742        3.26335       -1.70052
O          1.48655       -1.15366        2.84225
C         -3.41547       -2.81391        0.39801
H         -2.19463       -2.64931        2.01638
O         -3.73787       -2.40583       -0.70603
C         -4.11296       -4.05339        0.90788
F         -3.65936       -4.43431        2.15851
F         -3.89585       -5.09476        0.02443
F         -5.47147       -3.80910        0.98886
