16
	Energy:      48.9926570
C         -1.65848        1.03474       -0.46947
C         -0.40874        1.37299        0.12515
C         -2.26368       -0.20268       -0.09302
C          0.21495        0.51289        1.05862
C         -0.38540       -0.72266        1.43703
C         -1.63716       -1.06562        0.84403
Br         1.91696        1.10154        1.78922
Br         0.52231        3.02585       -0.29878
Br        -3.96629       -0.77522       -0.83397
Br        -2.55504       -2.72411        1.27991
C          0.29149       -1.63956        2.43987
O         -0.20815       -2.69788        2.77340
C         -2.31927        1.96584       -1.47075
O         -3.38683        1.69011       -1.98686
O         -1.76232        3.13319       -1.83487
O          1.47068       -1.32993        3.00682
